 LAMMPS data file

        3 atoms
        0 bonds
        0 angles
        0 dihedrals
        0 impropers

        1 atom types
        0 bond types
        0 angle types
        0 dihedral types
        0 improper types

    -10.00000000     10.000000     xlo xhi
    -10.00000000     10.000000     ylo yhi
    -10.00000000     10.000000     zlo zhi

 Masses

           1  12.011150

 Atoms

           1  1  1  0   0.0000000       0.0000000       0.0000000    
           2  1  1  0   0.0000000       0.0000000       1.2000000    
           3  1  1  0   0.0000000      0.0000000       -1.2000000    
